! TOUCHSTONE file generated by CST MICROWAVE STUDIO
! Date and time: Sat Oct 19 16:01:45 2019
! Project name: SystemAir.cst
! Parameters = {distance=410; misalignment=240; sim_space=200}
! Header version: 2018
! Port assignment regex: !\s*Touchstone port\s*([0-9]+)\s*=\s*(CST MWS port|CST DS port)\s*([0-9]+|Zmin|Zmax)\s*\(\"(.*)\"\)(\s*mode\s*([0-9]+))?.*
! Touchstone port assignment:
! Touchstone port 1 = CST MWS port 1 ("")
! Touchstone port 2 = CST MWS port 2 ("")
# MHz S MA R 50
13.56                   0.999397         60.4544        0.0115604        -31.3177        0.0115604        -31.3177         0.999301         56.9475
