! TOUCHSTONE file generated by CST MICROWAVE STUDIO
! Date and time: Sat Oct 19 16:01:19 2019
! Project name: SystemAir.cst
! Parameters = {distance=410; misalignment=200; sim_space=200}
! Header version: 2018
! Port assignment regex: !\s*Touchstone port\s*([0-9]+)\s*=\s*(CST MWS port|CST DS port)\s*([0-9]+|Zmin|Zmax)\s*\(\"(.*)\"\)(\s*mode\s*([0-9]+))?.*
! Touchstone port assignment:
! Touchstone port 1 = CST MWS port 1 ("")
! Touchstone port 2 = CST MWS port 2 ("")
# MHz S MA R 50
13.56                   0.999369         60.5047        0.0136235         -31.289        0.0136235         -31.289         0.999275         56.9312
