! TOUCHSTONE file generated by CST MICROWAVE STUDIO
! Date and time: Sat Oct 19 16:01:18 2019
! Project name: SystemAir.cst
! Parameters = {distance=610; misalignment=0; sim_space=200}
! Header version: 2018
! Port assignment regex: !\s*Touchstone port\s*([0-9]+)\s*=\s*(CST MWS port|CST DS port)\s*([0-9]+|Zmin|Zmax)\s*\(\"(.*)\"\)(\s*mode\s*([0-9]+))?.*
! Touchstone port assignment:
! Touchstone port 1 = CST MWS port 1 ("")
! Touchstone port 2 = CST MWS port 2 ("")
# MHz S MA R 50
13.56                   0.999431         60.5482       0.00773322        -31.3024       0.00773322        -31.3024         0.999338         56.9612
