! TOUCHSTONE file generated by CST MICROWAVE STUDIO
! Date and time: Sat Jan  4 17:23:59 2020
! Project name: DroneBig.cst
! Parameters = {distance=400; misalignment=600; sim_space=200}
! Header version: 2018
! Port assignment regex: !\s*Touchstone port\s*([0-9]+)\s*=\s*(CST MWS port|CST DS port)\s*([0-9]+|Zmin|Zmax)\s*\(\"(.*)\"\)(\s*mode\s*([0-9]+))?.*
! Touchstone port assignment:
! Touchstone port 1 = CST MWS port 1 ("")
! Touchstone port 2 = CST MWS port 2 ("")
# MHz S MA R 50
13.56                   0.999467         59.8873      3.11126e-05        -64.2774      3.11175e-05        -64.2774         0.998324        -5.94696
