! TOUCHSTONE file generated by CST MICROWAVE STUDIO
! Date and time: Sat Jan  4 17:24:00 2020
! Project name: DroneBig.cst
! Parameters = {distance=400; misalignment=800; sim_space=200}
! Header version: 2018
! Port assignment regex: !\s*Touchstone port\s*([0-9]+)\s*=\s*(CST MWS port|CST DS port)\s*([0-9]+|Zmin|Zmax)\s*\(\"(.*)\"\)(\s*mode\s*([0-9]+))?.*
! Touchstone port assignment:
! Touchstone port 1 = CST MWS port 1 ("")
! Touchstone port 2 = CST MWS port 2 ("")
# MHz S MA R 50
13.56                   0.999467         59.8928       2.5927e-06        -69.2614      2.59255e-06        -69.2638         0.998318        -5.95625
