! TOUCHSTONE file generated by CST MICROWAVE STUDIO
! Date and time: Sat Jan  4 17:24:10 2020
! Project name: DroneBig.cst
! Parameters = {distance=700; misalignment=500; sim_space=200}
! Header version: 2018
! Port assignment regex: !\s*Touchstone port\s*([0-9]+)\s*=\s*(CST MWS port|CST DS port)\s*([0-9]+|Zmin|Zmax)\s*\(\"(.*)\"\)(\s*mode\s*([0-9]+))?.*
! Touchstone port assignment:
! Touchstone port 1 = CST MWS port 1 ("")
! Touchstone port 2 = CST MWS port 2 ("")
# MHz S MA R 50
13.56                   0.999466         59.8758      7.21963e-05        -64.3463      7.22084e-05         -64.346         0.998327         -5.9349
