! TOUCHSTONE file generated by CST MICROWAVE STUDIO
! Date and time: Fri Oct 25 14:45:15 2019
! Project name: SystemAir_rx5.cst
! Parameters = {distance=170; sim_space=200}
! Header version: 2018
! Port assignment regex: !\s*Touchstone port\s*([0-9]+)\s*=\s*(CST MWS port|CST DS port)\s*([0-9]+|Zmin|Zmax)\s*\(\"(.*)\"\)(\s*mode\s*([0-9]+))?.*
! Touchstone port assignment:
! Touchstone port 1 = CST MWS port 1 ("")
! Touchstone port 2 = CST MWS port 2 ("")
# MHz S MA R 50
13.56                   0.999688         26.0688        0.0139564         112.409        0.0139564         112.409         0.999684         18.6677
